                         Program Version 4.0.1.2 - RELEASE -
|  1> ! hf-3c nbo
|  2> % maxcore 2000
|  3> *xyz 0 1
|  4>  O    0.2966541907    1.1989996780   -0.7846853133
|  5>  C    0.0893935314    0.1403517717    0.1273457113
|  6>  C   -1.3568498156   -0.2498967523    0.2095891208
|  7>  C   -2.1894610207   -0.6969306575    1.2128201306
|  8>  C   -2.7477795905   -1.1153172024    2.5723185299
|  9>  C   -4.1189010708   -1.3073284427    1.8123786778
| 10>  N   -3.3717489347   -0.8828946285    0.6058928409
| 11>  N   -3.3680151854   -0.5831469185   -0.6968692767
| 12>  N   -2.1273104998   -0.2078829415   -0.9259333594
| 13>  H   -0.3229602630    1.0540610913   -1.5109595790
| 14>  H    0.6914383159   -0.7418213569   -0.1509592738
| 15>  H    0.4469172979    0.4708239072    1.1088803602
| 16>  H   -2.3315846557   -2.0320734650    2.9936011437
| 17>  H   -2.7599266765   -0.3356458902    3.3359280604
| 18>  H   -4.4957414641   -2.3296116666    1.7524169450
| 19>  H   -4.9184343491   -0.6186941060    2.0902248416
| 20> *
| 21>
| 22>                          ****END OF INPUT****

CARTESIAN COORDINATES (ANGSTROEM)
---------------------------------
  O      0.296654    1.199000   -0.784685
  C      0.089394    0.140352    0.127346
  C     -1.356850   -0.249897    0.209589
  C     -2.189461   -0.696931    1.212820
  C     -2.747780   -1.115317    2.572319
  C     -4.118901   -1.307328    1.812379
  N     -3.371749   -0.882895    0.605893
  N     -3.368015   -0.583147   -0.696869
  N     -2.127310   -0.207883   -0.925933
  H     -0.322960    1.054061   -1.510960
  H      0.691438   -0.741821   -0.150959
  H      0.446917    0.470824    1.108880
  H     -2.331585   -2.032073    2.993601
  H     -2.759927   -0.335646    3.335928
  H     -4.495741   -2.329612    1.752417
  H     -4.918434   -0.618694    2.090225

 Total Charge           Charge          ....    0
 Multiplicity           Mult            ....    1
 Number of Electrons    NEL             ....   66
 Basis Dimension        Dim             ....   52

ORBITAL ENERGIES
----------------

  NO   OCC          E(Eh)            E(eV)
   0   2.0000     -20.298108      -552.3396
   1   2.0000     -15.542314      -422.9279
   2   2.0000     -15.501423      -421.8152
   3   2.0000     -15.439956      -420.1426
   4   2.0000     -11.275308      -306.8167
   5   2.0000     -11.239160      -305.8331
   6   2.0000     -11.236227      -305.7533
   7   2.0000     -11.235842      -305.7428
   8   2.0000     -11.211074      -305.0688
   9   2.0000      -1.470375       -40.0109
  10   2.0000      -1.335208       -36.3329
  11   2.0000      -1.273526       -34.6544
  12   2.0000      -1.118340       -30.4316
  13   2.0000      -1.031357       -28.0647
  14   2.0000      -0.955777       -26.0080
  15   2.0000      -0.925337       -25.1797
  16   2.0000      -0.818261       -22.2660
  17   2.0000      -0.769576       -20.9412
  18   2.0000      -0.731399       -19.9024
  19   2.0000      -0.701775       -19.0963
  20   2.0000      -0.649403       -17.6711
  21   2.0000      -0.620830       -16.8936
  22   2.0000      -0.605549       -16.4778
  23   2.0000      -0.591150       -16.0860
  24   2.0000      -0.579127       -15.7589
  25   2.0000      -0.566293       -15.4096
  26   2.0000      -0.558670       -15.2022
  27   2.0000      -0.481813       -13.1108
  28   2.0000      -0.475605       -12.9419
  29   2.0000      -0.424719       -11.5572
  30   2.0000      -0.409136       -11.1332
  31   2.0000      -0.403068       -10.9680
  32   2.0000      -0.355776        -9.6812
  33   0.0000       0.188625         5.1327
  34   0.0000       0.257785         7.0147
  35   0.0000       0.361942         9.8489
  36   0.0000       0.432246        11.7620
  37   0.0000       0.447210        12.1692

MULLIKEN ATOMIC CHARGES
-----------------------
   0 O :   -0.503200
   1 C :   -0.058860
   2 C :    0.017097
   3 C :    0.079228
   4 C :   -0.240928
   5 C :   -0.110498
   6 N :   -0.188119
   7 N :   -0.053249
   8 N :   -0.198902
   9 H :    0.321453
  10 H :    0.136659
  11 H :    0.146860
  12 H :    0.159966
  13 H :    0.161174
  14 H :    0.165217
  15 H :    0.166104
Sum of atomic charges:    0.0000000

LOEWDIN ATOMIC CHARGES
----------------------
   0 O :   -0.369088
   1 C :   -0.001671
   2 C :   -0.033831
   3 C :    0.028274
   4 C :   -0.142003
   5 C :   -0.036573
   6 N :   -0.040961
   7 N :   -0.071554
   8 N :   -0.162488
   9 H :    0.236464
  10 H :    0.081391
  11 H :    0.091574
  12 H :    0.104636
  13 H :    0.105619
  14 H :    0.104738
  15 H :    0.105474

  Mayer bond orders larger than 0.1
B(  0-O ,  1-C ) :   0.9697 B(  0-O ,  9-H ) :   0.8717 B(  1-C ,  2-C ) :   1.0034
B(  1-C , 10-H ) :   0.9422 B(  1-C , 11-H ) :   0.9532 B(  2-C ,  3-C ) :   1.5112
B(  2-C ,  8-N ) :   1.2987 B(  3-C ,  4-C ) :   1.0033 B(  3-C ,  6-N ) :   1.2124
B(  3-C ,  7-N ) :   0.1451 B(  4-C ,  5-C ) :   0.9925 B(  4-C , 12-H ) :   0.9546
B(  4-C , 13-H ) :   0.9542 B(  5-C ,  6-N ) :   0.9182 B(  5-C , 14-H ) :   0.9516
B(  5-C , 15-H ) :   0.9513 B(  6-N ,  7-N ) :   1.1987 B(  6-N ,  8-N ) :   0.1066
B(  7-N ,  8-N ) :   1.5217

Dispersion correction           -0.069725855
FINAL SINGLE POINT ENERGY      -428.693758161008

DIPOLE MOMENT
-------------
                                X             Y             Z
Electronic contribution:     -1.47516       0.67650      -4.23544
Nuclear contribution   :      0.67732      -1.73316       6.15033
                        -----------------------------------------
Total Dipole Moment    :     -0.79785      -1.05665       1.91489
                        -----------------------------------------
Magnitude (a.u.)       :      2.32806
Magnitude (Debye)      :      5.91746

                             ****ORCA TERMINATED NORMALLY****
TOTAL RUN TIME: 0 days 0 hours 0 minutes 1 seconds 262 msec
